% Model:              3layer prestressed_v2_polp_v1.mph
% Version:            COMSOL 6.1.0.282
% Date:               Mar 12 2024, 16:51
% Table:              Accumulated Probe Table 7 - 
% FL (N/m^2)             freq (Hz)                Displacement field, Y-component (m), Boundary Probe 1Displacement field, Y-component (m), Domain Probe 1
5000                     100                      0.0033103625433614837    0.006264646956203332
5000                     100.5                    0.0033703700667385168    0.006310301944467518
5000                     101                      0.00343245529902624      0.006357190462198346
5000                     101.5                    0.003497003266183852     0.006405365034382701
5000                     102                      0.0035681146473940948    0.006454881363126893
5000                     102.5                    0.0036418532842886443    0.006505798576325659
5000                     103                      0.0037183562597471478    0.006558179500257318
5000                     103.5                    0.003797770068306278     0.006612090958834526
5000                     104                      0.003880251421758076     0.006667604102602352
5000                     104.5                    0.0039659681376451724    0.006724794770987717
5000                     105                      0.004055100120620072     0.006783743891783005
5000                     105.5                    0.004147840448018296     0.006844537922392162
5000                     106                      0.004244515299837357     0.006907269338011298
5000                     106.5                    0.004345267552148663     0.006972037172644492
5000                     107                      0.00445030927348442      0.007038947619714337
5000                     107.5                    0.00455990040044458      0.007108114700023956
5000                     108                      0.004674321620492995     0.007179661005980521
5000                     108.5                    0.004793876436475384     0.0072567078660834795
5000                     109                      0.004918893477358026     0.007337765308845186
5000                     109.5                    0.005049729089281673     0.00742186683077823
5000                     110                      0.005186770246458856     0.007509195355931494
5000                     110.5                    0.005330437827652795     0.0075999491644983055
5000                     111                      0.005481190311383187     0.007694343542017583
5000                     111.5                    0.00563952795170784      0.007792612643349744
5000                     112                      0.005805997506563981     0.007895011604025323
5000                     112.5                    0.005981197602748116     0.008001818937162324
5000                     113                      0.006165784835759327     0.008113339260754315
5000                     113.5                    0.006360480719364078     0.008229906407986098
5000                     114                      0.006566079619437546     0.0083518869825575
5000                     114.5                    0.006783457829596793     0.00847968443205205
5000                     115                      0.007013583973084033     0.008613743725482344
5000                     115.5                    0.007257530946718046     0.008783747042976233
5000                     116                      0.007516489658738998     0.009090458568494064
5000                     116.5                    0.007791784853599841     0.009416478254532984
5000                     117                      0.008084893362498326     0.009763551437065358
5000                     117.5                    0.008397465168180861     0.01013362799614968
5000                     118                      0.008731347723338976     0.010528891042965637
5000                     118.5                    0.009088614009140194     0.010951790004583347
5000                     119                      0.009471619901440716     0.011405078712653711
5000                     119.5                    0.009883325003774562     0.011891859103215208
5000                     120                      0.010326369948473562     0.012415631063913277
5000                     120.5                    0.010804106896745023     0.012980348760599104
5000                     121                      0.011320327069213924     0.013590483332135448
5000                     121.5                    0.011879318899891413     0.014251090979251377
5000                     122                      0.01248592878804295      0.014967883878804385
5000                     122.5                    0.01314561994003871      0.015747298490791792
5000                     123                      0.01386452054638905      0.016596550756298983
5000                     123.5                    0.014649445062234819     0.01752365877190015
5000                     124                      0.015507859218581086     0.01853739787860511
5000                     124.5                    0.01644773625202522      0.019647125575350328
5000                     125                      0.01747721093113595      0.020862365037439247
5000                     125.5                    0.018603865278516277     0.022191949688462595
5000                     126                      0.01983335022913096      0.02364237736576695
5000                     126.5                    0.02116681588809954      0.025214747920437996
5000                     127                      0.022596626667803817     0.02689917058988947
5000                     127.5                    0.024097810273516578     0.028664679329563805
5000                     128                      0.025611289772405274     0.030441290740853173
5000                     128.5                    0.027019030402218345     0.03208878947107509
5000                     129                      0.028100354736553597     0.033344833097315535
5000                     129.5                    0.0284655057426024       0.03374686874015176
5000                     130                      0.02747833785807556      0.03254109178160738
5000                     130.5                    0.024233703596294596     0.028656788149153435
5000                     131                      0.017787268407164346     0.020956942059714104
5000                     131.5                    0.00841271012805035      0.012778364573665182
5000                     132                      8.670882427326092E-4     0.008544760674778837
5000                     132.5                    8.270557981819578E-5     0.006047684329011437
5000                     133                      0                        0.004949980278607537
5000                     133.5                    0                        0.004485296053155233
5000                     134                      0                        0.004306354510558467
5000                     134.5                    0                        0.004302614646705829
5000                     135                      0                        0.00441076825043242
5000                     135.5                    0                        0.0045848333418848294
5000                     136                      0                        0.004795849468640129
5000                     136.5                    0                        0.005026996775383791
5000                     137                      0                        0.0052735106297877145
5000                     137.5                    0                        0.005542262661273872
5000                     138                      0                        0.005814986883574081
5000                     138.5                    0                        0.00610080552903868
5000                     139                      0                        0.006403440730332864
5000                     139.5                    0                        0.006710077881037675
5000                     140                      0                        0.0070221172852073035
5000                     140.5                    0                        0.007352080651324061
5000                     141                      0                        0.007699948886156445
5000                     141.5                    0                        0.008072412233591647
5000                     142                      0                        0.008462433629694347
5000                     142.5                    0                        0.008864890036997659
5000                     143                      0                        0.009281151988372725
5000                     143.5                    0                        0.00971204975492534
5000                     144                      0                        0.010157530175103572
5000                     144.5                    0                        0.010616115332971372
5000                     145                      0                        0.01108405216705825
5000                     145.5                    0                        0.011553985835342307
5000                     146                      0                        0.012012913005210875
5000                     146.5                    0                        0.01243908406317932
5000                     147                      0                        0.012797473920165758
5000                     147.5                    0                        0.013033579596782762
5000                     148                      0                        0.013066005931231927
5000                     148.5                    0                        0.012780333517752845
5000                     149                      0                        0.01203115864317108
5000                     149.5                    0                        0.01066570047226375
5000                     150                      7.813549441252395E-4     0.008710574106406986
5000                     150.5                    0.0019957955380321144    0.00623010088208406
5000                     151                      0.003393246876982015     0.00358804925403049
5000                     151.5                    0.004806136638215118     0.004806136638215118
5000                     152                      0.0060620230284024355    0.0060620230284024355
5000                     152.5                    0.007062569741755602     0.007062569741755602
5000                     153                      0.0077777170249309       0.0077777170249309
5000                     153.5                    0.008252568427180345     0.008252568427180345
5000                     154                      0.008554669950585176     0.008554669950585176
5000                     154.5                    0.008747897102040422     0.008747897102040422
5000                     155                      0.00888239677675688      0.00888239677675688
5000                     155.5                    0.00899394404710525      0.00899394404710525
5000                     156                      0.009106752020150698     0.009106752020150698
5000                     156.5                    0.009236619462471056     0.009236619462471056
5000                     157                      0.009393227939601938     0.009393227939601938
5000                     157.5                    0.009581208166316711     0.009581208166316711
5000                     158                      0.009799716677850779     0.009799716677850779
5000                     158.5                    0.010040002047446293     0.010040002047446293
5000                     159                      0.01027994196338934      0.01027994196338934
5000                     159.5                    0.010474059959164598     0.010474059959164598
5000                     160                      0.01053819867978631      0.01053819867978631
5000                     160.5                    0.010337122768840145     0.010337122768840145
5000                     161                      0.009720908560271593     0.009720908560271593
5000                     161.5                    0.008510142938160041     0.008510142938160041
5000                     162                      0.006849220243992305     0.006849220243992305
5000                     162.5                    0.005052978726321069     0.005052978726321069
5000                     163                      0.003598871728382644     0.003598871728382644
5000                     163.5                    0.0026882485122416543    0.0026882485122416543
5000                     164                      0.002189809712204653     0.002189809712204653
5000                     164.5                    0.0019123579346467029    0.002070382454247571
5000                     165                      0.0017303712783484908    0.0019323920331277365
5000                     165.5                    0.0015851003824861555    0.001745962743632373
5000                     166                      0.0014370951551366527    0.001507225215820547
5000                     166.5                    0.0012620246615625817    0.0014273811090178897
5000                     167                      0.001046521489204231     0.001711853610681725
5000                     167.5                    7.855858697355525E-4     0.0020660729731579843
5000                     168                      4.900957023643197E-4     0.0024779060240149573
5000                     168.5                    2.546239328384875E-4     0.0029234486072914237
5000                     169                      9.914576905177745E-4     0.003371693472368324
5000                     169.5                    0.0017160133554142312    0.0037894500304929933
5000                     170                      0.002384557796415295     0.004146245536804806
5000                     170.5                    0.002968209591135937     0.004418411774520042
5000                     171                      0.0034459361994164345    0.004591570374038977
5000                     171.5                    0.0038052836407559297    0.004661187743684259
5000                     172                      0.004039000966510677     0.004631465069648519
5000                     172.5                    0.00415592979100172      0.004513232641292988
5000                     173                      0.00417054073848879      0.004321588837704818
5000                     173.5                    0.004101349320074782     0.004102854162500987
5000                     174                      0.003967246219153102     0.003967246219153102
5000                     174.5                    0.0037873552171807778    0.0037873552171807778
5000                     175                      0.0035797988550678415    0.0035797988550678415
5000                     175.5                    0.003361214567661245     0.003361214567661245
5000                     176                      0.0031529006406110236    0.0031529006406110236
5000                     176.5                    0.002969064913418088     0.002969064913418088
5000                     177                      0.0028121047295443045    0.0028121047295443045
5000                     177.5                    0.0026887281112830254    0.0026887281112830254
5000                     178                      0.0026020648864005748    0.0026020648864005748
5000                     178.5                    0.0025515978870306283    0.0025515978870306283
5000                     179                      0.002533545563050618     0.002533545563050618
5000                     179.5                    0.002546590540846518     0.002546590540846518
5000                     180                      0.0025793059429599953    0.0025793059429599953
5000                     180.5                    0.002623594774358477     0.002623594774358477
5000                     181                      0.0026724249919187967    0.0026724249919187967
5000                     181.5                    0.002719890118994154     0.002719890118994154
5000                     182                      0.002764981255518045     0.002764981255518045
5000                     182.5                    0.002808570595534535     0.002808570595534535
5000                     183                      0.002841820370670281     0.002841820370670281
5000                     183.5                    0.0028667745819452037    0.0028667745819452037
5000                     184                      0.0028896343993380868    0.0028896343993380863
5000                     184.5                    0.002899929906470524     0.0028999299064705235
5000                     185                      0.0029078414968807167    0.0029078414968807167
5000                     185.5                    0.0029079712786271505    0.0029079712786271505
5000                     186                      0.0029073584665567863    0.0029073584665567863
5000                     186.5                    0.002897961308765928     0.002897961308765928
5000                     187                      0.0028768369273813703    0.0028768369273813703
5000                     187.5                    0.0028579543530611777    0.0028579543530611777
5000                     188                      0.00282978627626959      0.00282978627626959
5000                     188.5                    0.0027950478317949642    0.0027950478317949642
5000                     189                      0.0027630935251262622    0.0027630935251262622
5000                     189.5                    0.002723675336833405     0.002723675336833405
5000                     190                      0.00268425618983234      0.00268425618983234
5000                     190.5                    0.0026467795470045976    0.0026467795470045976
5000                     191                      0.002604190378878061     0.002604190378878061
5000                     191.5                    0.0025650296102366433    0.0025650296102366433
5000                     192                      0.0025264390111834232    0.0025264390111834232
5000                     192.5                    0.0024951598176720584    0.0024951598176720584
5000                     193                      0.0024623545722010955    0.002462354572201096
5000                     193.5                    0.0024343977557187875    0.002434397755718788
5000                     194                      0.002407573273284191     0.002407573273284191
5000                     194.5                    0.0023794050282304946    0.002379405028230494
5000                     195                      0.0023452632564421507    0.0023452632564421507
5000                     195.5                    0.0023051905398203654    0.002305190539820365
5000                     196                      0.002263950301812777     0.002263950301812777
5000                     196.5                    0.0022270959263614135    0.0022270959263614135
5000                     197                      0.002184276286354009     0.002184276286354009
5000                     197.5                    0.0021408445685701712    0.0021408445685701712
5000                     198                      0.002096444142827985     0.002096444142827985
5000                     198.5                    0.0020476229460644558    0.0020476229460644558
5000                     199                      0.0019955572638606918    0.0019999950529183143
5000                     199.5                    0.0019414155485800988    0.001956583942493747
5000                     200                      0.0018863024897164615    0.0019120812142559207
5000                     200.5                    0.0018312136501463527    0.0018666132153877756
5000                     201                      0.0017770020659681727    0.0018210062683685245
5000                     201.5                    0.001724357078263676     0.0017759426548544525
5000                     202                      0.00167379472600872      0.0017348520233108034
5000                     202.5                    0.0016256583104118257    0.0016976038062045677
5000                     203                      0.0015801272669001675    0.0016615362560939162
5000                     203.5                    0.0015372322570999482    0.0016267214475545716
5000                     204                      0.0014968743976442565    0.0015931193953514456
5000                     204.5                    0.001458918894382945     0.0015605941042405869
5000                     205                      0.0014230624234121128    0.0015289307222304635
5000                     205.5                    0.0013888692825654693    0.0014978528554077633
5000                     206                      0.001355938524488903     0.0014685292610828382
5000                     206.5                    0.0013244922073175041    0.001439228414450314
5000                     207                      0.0012966191085394083    0.001409410197531998
5000                     207.5                    0.0012686902389527955    0.0013788251298228907
5000                     208                      0.0012402915886542774    0.0013476254010973104
5000                     208.5                    0.001211043861359706     0.0013149014567543096
5000                     209                      0.0011806087248498903    0.0012803570299334765
5000                     209.5                    0.0011486934769639851    0.001243736886478617
5000                     210                      0.001115054419349672     0.0012052198968026063
5000                     210.5                    0.0010812318779575764    0.0011644182839989855
5000                     211                      0.0010495029739877215    0.0011229012704298902
5000                     211.5                    0.001015941089425928     0.0010803748417103703
5000                     212                      9.805851646131868E-4     0.0010376691117849643
5000                     212.5                    9.479757628857895E-4     9.96628263633868E-4
5000                     213                      9.176817128804993E-4     9.57181481993756E-4
5000                     213.5                    8.957825346592318E-4     9.227141790720634E-4
5000                     214                      8.841938760475083E-4     9.258997752425031E-4
5000                     214.5                    8.829091040879106E-4     9.287013201193797E-4
5000                     215                      8.910191945106933E-4     9.311263685440628E-4
5000                     215.5                    9.100294146426463E-4     9.331960566014152E-4
5000                     216                      9.344166689676827E-4     9.349438805297749E-4
5000                     216.5                    9.614117464870917E-4     9.614117464870917E-4
5000                     217                      9.93176351233047E-4      9.93176351233047E-4
5000                     217.5                    0.0010252934530225744    0.0010252934530225744
5000                     218                      0.0010575781628369247    0.0010575781628369247
5000                     218.5                    0.0010909111361888228    0.0010909111361888228
5000                     219                      0.001126223041561579     0.001126223041561579
5000                     219.5                    0.0011623243921740746    0.0011623243921740746
5000                     220                      0.0011986917634408036    0.0011986917634408036
5000                     220.5                    0.0012348585215147725    0.0012348585215147725
5000                     221                      0.0012699473232733573    0.0012699473232733573
5000                     221.5                    0.0013048975153219782    0.0013048975153219782
5000                     222                      0.0013390132966934983    0.0013390132966934983
5000                     222.5                    0.0013726655367665218    0.0013726655367665218
5000                     223                      0.0014052060574718248    0.0014052060574718248
5000                     223.5                    0.0014362407982192516    0.0014362407982192516
5000                     224                      0.0014657838894584756    0.0014657838894584756
5000                     224.5                    0.0014941188591744967    0.0014941188591744967
5000                     225                      0.0015216577586785807    0.0015216577586785807
5000                     225.5                    0.0015477745749299361    0.0015477745749299361
5000                     226                      0.001572527381554857     0.001572527381554857
5000                     226.5                    0.0015959748209574869    0.0015959748209574869
5000                     227                      0.0016181729160113139    0.0016181729160113139
5000                     227.5                    0.0016391724152967923    0.0016391724152967923
5000                     228                      0.001659016704441555     0.001659016704441555
5000                     228.5                    0.0016777402941142222    0.0016777402941142222
5000                     229                      0.0016955492502492044    0.0016955492502492044
5000                     229.5                    0.0017125887556425257    0.0017125887556425257
5000                     230                      0.0017285387406726226    0.0017285387406726226
5000                     230.5                    0.001743397424438029     0.001743397424438029
5000                     231                      0.0017571534306823223    0.0017571534306823223
5000                     231.5                    0.0017697858723340351    0.0017697858723340351
5000                     232                      0.0017812638825422077    0.0017812638825422077
5000                     232.5                    0.0017915459412956095    0.0017915459412956095
5000                     233                      0.0018005802047584537    0.0018005802047584537
5000                     233.5                    0.0018083070958777778    0.0018083070958777778
5000                     234                      0.0018146638837444498    0.0018146638837444498
5000                     234.5                    0.001819589266483227     0.001819589266483227
5000                     235                      0.00182302619492554      0.00182302619492554
5000                     235.5                    0.0018249228665957718    0.0018249228665957718
5000                     236                      0.0018252329009865796    0.0018252329009865796
5000                     236.5                    0.001824427008475038     0.001824427008475038
5000                     237                      0.0018223844813380237    0.0018223844813380237
5000                     237.5                    0.0018187678950039442    0.0018187678950039442
5000                     238                      0.001813451743338235     0.001813451743338235
5000                     238.5                    0.0018064176402312968    0.0018064176402312968
5000                     239                      0.0017976550895363558    0.0017976550895363558
5000                     239.5                    0.0017871619543393558    0.0017871619543393558
5000                     240                      0.0017754192417182987    0.0017754192417182987
5000                     240.5                    0.0017627377314358395    0.0017627377314358395
5000                     241                      0.0017486728833915847    0.0017486728833915847
5000                     241.5                    0.0017329183408350615    0.0017329183408350615
5000                     242                      0.001715499782089605     0.001715499782089605
5000                     242.5                    0.0016964504566224022    0.0016964504566224022
5000                     243                      0.0016758110483433232    0.0016758110483433232
5000                     243.5                    0.0016536295447061068    0.0016536295447061068
5000                     244                      0.001629961134712003     0.001629961134712003
5000                     244.5                    0.0016048681513566618    0.0016048681513566618
5000                     245                      0.0015786602672453061    0.0015786602672453061
5000                     245.5                    0.0015513997948717034    0.0015513997948717034
5000                     246                      0.0015229184815169342    0.0015229184815169342
5000                     246.5                    0.0014933067860963749    0.0014933067860963749
5000                     247                      0.0014626632246578473    0.0014626632246578473
5000                     247.5                    0.0014310939984399044    0.0014310939984399044
5000                     248                      0.001398712167180397     0.001398712167180397
5000                     248.5                    0.001365656711676697     0.001365656711676697
5000                     249                      0.001332381492056629     0.001332381492056629
5000                     249.5                    0.0012986542787751423    0.0012986542787751423
5000                     250                      0.0012646002251592984    0.0012646002251592984
5000                     250.5                    0.0012303380379718892    0.0012303380379718892
5000                     251                      0.0011961192720636948    0.0011961192720636948
5000                     251.5                    0.001162417604666347     0.001162417604666347