% Model:              3layer prestressed_v3.mph
% Version:            COMSOL 6.1.0.282
% Date:               Mar 12 2024, 19:00
% Table:              Accumulated Probe Table 7 - 
% FL (N/m^2)             freq (Hz)                Displacement field, Y-component (m), Boundary Probe 1Displacement field, Y-component (m), Domain Probe 1
5000                     100                      0.00311356791943418      0.006183940981676446
5000                     100.5                    0.0031628167980563148    0.006227756643970022
5000                     101                      0.003213605247681002     0.006272687260911121
5000                     101.5                    0.0032660018886423075    0.00631877655965594
5000                     102                      0.0033200794031612553    0.0063660706790995055
5000                     102.5                    0.0033759148363395747    0.00641461834104675
5000                     103                      0.0034335899240690157    0.006464471036295427
5000                     103.5                    0.003493191450682853     0.006515683227174632
5000                     104                      0.0035548116395193482    0.006568312568265455
5000                     104.5                    0.0036185485799546417    0.006622420147242912
5000                     105                      0.0036845066949064897    0.006678070748015609
5000                     105.5                    0.003752797253313084     0.006735333138613594
5000                     106                      0.003823538932671389     0.006794280386587195
5000                     106.5                    0.0038968584373773978    0.0068549902050349665
5000                     107                      0.003972891179371349     0.006917545332791069
5000                     107.5                    0.004051782028460167     0.006982033952770115
5000                     108                      0.004133686140695614     0.007048550153012235
5000                     108.5                    0.004218769874340229     0.0071171944355939544
5000                     109                      0.004307211804297122     0.007188074279295558
5000                     109.5                    0.004399203847425754     0.007261304762752149
5000                     110                      0.004494952512969608     0.007337009255788792
5000                     110.5                    0.004594680294415425     0.007415320187773029
5000                     111                      0.0046986272215456155    0.00749637990313711
5000                     111.5                    0.004807052594302903     0.007580341615769421
5000                     112                      0.0049202369234257705    0.0076673704757805085
5000                     112.5                    0.005038484106739819     0.007757644764276891
5000                     113                      0.005162123874606794     0.007851357234278034
5000                     113.5                    0.0052915145434748664    0.007948716618864416
5000                     114                      0.005427046122908458     0.008049949331138612
5000                     114.5                    0.005569143829093897     0.00815530138472647
5000                     115                      0.005718272066860114     0.008265040568467613
5000                     115.5                    0.005874938953010139     0.008379458914814529
5000                     116                      0.006039701466577276     0.008498875508463255
5000                     116.5                    0.006213171326927619     0.008623639690124321
5000                     117                      0.006396021718926229     0.008754134720388737
5000                     117.5                    0.006588995006312118     0.008890781980717315
5000                     118                      0.006792911600678493     0.009034045803089969
5000                     118.5                    0.007008680184961986     0.009184439037326799
5000                     119                      0.007237309528070259     0.009342529486121819
5000                     119.5                    0.0074799221724516545    0.009508947363148173
5000                     120                      0.007737770330293816     0.009684393960005604
5000                     120.5                    0.008012254388021358     0.009885951241411037
5000                     121                      0.008304944494119301     0.010102015177884756
5000                     121.5                    0.00861760579292209      0.010331332630863114
5000                     122                      0.008952227966857844     0.010575173624643159
5000                     122.5                    0.009311059859634851     0.01083497191989406
5000                     123                      0.009696650067203839     0.011112350792023716
5000                     123.5                    0.010111894488822326     0.011409153325587992
5000                     124                      0.010560091901033951     0.01172747796343355
5000                     124.5                    0.011045008602615872     0.012069720075597357
5000                     125                      0.01157095298541071      0.012438620246192895
5000                     125.5                    0.012142860343479943     0.012841471886620463
5000                     126                      0.012766387029478745     0.013324179640084564
5000                     126.5                    0.01344801063402555      0.0138496554169795
5000                     127                      0.014195128159860003     0.014423310284284006
5000                     127.5                    0.01501613526887611      0.01510651120084889
5000                     128                      0.015920453028766667     0.015979442220346356
5000                     128.5                    0.016918437480554323     0.01694211599342168
5000                     129                      0.018021049098343202     0.018021049098343202
5000                     129.5                    0.01923904957798173      0.01923904957798173
5000                     130                      0.02058128589331835      0.02058128589331835
5000                     130.5                    0.022069113379170197     0.022069113379170197
5000                     131                      0.023739238873650346     0.023739238873650346
5000                     131.5                    0.025493963549535682     0.025493963549535682
5000                     132                      0.027239663257809195     0.027239663257809195
5000                     132.5                    0.02877810615990467      0.02877810615990467
5000                     133                      0.029721150204907076     0.029721150204907076
5000                     133.5                    0.02936546563714619      0.02936546563714619
5000                     134                      0.026813160890784237     0.026813160890784237
5000                     134.5                    0.020867925985198505     0.021095657086650565
5000                     135                      0.010612458651935396     0.014382938535878671
5000                     135.5                    7.256055544838981E-4     0.008395595683551547
5000                     136                      0                        0.005568721284245858
5000                     136.5                    0                        0.004411490838081076
5000                     137                      0                        0.003909366728036277
5000                     137.5                    0                        0.0037794089759107244
5000                     138                      0                        0.0038515751162611833
5000                     138.5                    0                        0.004038760068312697
5000                     139                      0                        0.0043076706002915695
5000                     139.5                    0                        0.004608525324501428
5000                     140                      0                        0.004944827551572024
5000                     140.5                    0                        0.005300599449913912
5000                     141                      0                        0.005658217206022734
5000                     141.5                    0                        0.0060169656972225895
5000                     142                      0                        0.006382899613513912
5000                     142.5                    0                        0.006772196680313289
5000                     143                      0                        0.007165982172508621
5000                     143.5                    0                        0.007575534530722993
5000                     144                      0                        0.008009897710646153
5000                     144.5                    0                        0.008453126381378812
5000                     145                      0                        0.008905993212084956
5000                     145.5                    0                        0.009368012662883157
5000                     146                      0                        0.009842791826536646
5000                     146.5                    0                        0.010330143166862076
5000                     147                      0                        0.010806407556690397
5000                     147.5                    0                        0.011252879125257216
5000                     148                      0                        0.01164039185393705
5000                     148.5                    0                        0.011920737950897218
5000                     149                      0                        0.01202158680122591
5000                     149.5                    0                        0.011845392195146657
5000                     150                      0                        0.011259948404759865
5000                     150.5                    0                        0.01016376324739152
5000                     151                      2.1487418311000572E-4    0.008427374095390752
5000                     151.5                    0.0013785434314430676    0.00611978412140987
5000                     152                      0.0027592175851610945    0.0035426379814710303
5000                     152.5                    0.004209773070134115     0.004209773070134115
5000                     153                      0.005559260196768393     0.005559260196768393
5000                     153.5                    0.006661262611703514     0.006661262611703514
5000                     154                      0.007474038576683941     0.007474038576683941
5000                     154.5                    0.008027975778704403     0.008027975778704403
5000                     155                      0.008386818137819876     0.008386818137819876
5000                     155.5                    0.008617001094631638     0.008617001094631638
5000                     156                      0.008773333215909267     0.008773333215909267
5000                     156.5                    0.00889603468038885      0.00889603468038885
5000                     157                      0.009012679479168688     0.009012679479168688
5000                     157.5                    0.009141123647437834     0.009141123647437834
5000                     158                      0.009291678776628193     0.009291678776628193
5000                     158.5                    0.009467803235532521     0.009467803235532521
5000                     159                      0.009664758928679948     0.009664758928679948
5000                     159.5                    0.009865405079353688     0.009865405079353688
5000                     160                      0.010032012253418886     0.010032012253418886
5000                     160.5                    0.010093857482216553     0.010093857482216553
5000                     161                      0.009935692545906507     0.009935692545906507
5000                     161.5                    0.00940706981773917      0.00940706981773917
5000                     162                      0.008418188161461589     0.008418188161461589
5000                     162.5                    0.0070457146750119515    0.0070457146750119515
5000                     163                      0.005618653682389592     0.005618653682389592
5000                     163.5                    0.004424556053618534     0.004424556053618534
5000                     164                      0.003609905478900572     0.0036099054789005716
5000                     164.5                    0.0031053637271414906    0.0031053637271414906
5000                     165                      0.0028072062482297918    0.0028072062482297918
5000                     165.5                    0.002595684298347391     0.002595684298347391
5000                     166                      0.0024140103918961525    0.0024140103918961525
5000                     166.5                    0.0022239938316459514    0.0022239938316459514
5000                     167                      0.0020031107223702355    0.0020031107223702355
5000                     167.5                    0.0017483644348131426    0.0017483644348131426
5000                     168                      0.0014419830614337225    0.0014419830614337225
5000                     168.5                    0.0010842844275250232    0.0010842844275250232
5000                     169                      6.822734709704485E-4     6.822734709704485E-4
5000                     169.5                    2.886566433833173E-4     2.94049171702444E-4
5000                     170                      4.340520488037266E-4     4.340520488037266E-4
5000                     170.5                    0.0011502630510382098    0.0011502630510382098
5000                     171                      0.0017859545878877077    0.0017859545878877077
5000                     171.5                    0.002312649133351019     0.002312649133351019
5000                     172                      0.0027154767531291416    0.0027154767531291416
5000                     172.5                    0.0029918884534905045    0.0029918884534905045
5000                     173                      0.0031496378519279937    0.0031496378519279937
5000                     173.5                    0.0032037071778965092    0.0032037071778965092
5000                     174                      0.003173176690901958     0.003173176690901958
5000                     174.5                    0.003078669196620778     0.003078669196620778
5000                     175                      0.002943202515249388     0.002943202515249388
5000                     175.5                    0.002785820837806636     0.002785820837806636
5000                     176                      0.0026203293379719805    0.0027862963818961477
5000                     176.5                    0.0024620610219353804    0.002814047581480426
5000                     177                      0.002324044305056617     0.002807294934538165
5000                     177.5                    0.002216737775349337     0.0028012494221204332
5000                     178                      0.002147598350296781     0.0027760815826621357
5000                     178.5                    0.002120681168766795     0.002718954820456071
5000                     179                      0.002136395284563953     0.0026324620351786407
5000                     179.5                    0.0021915061652520397    0.002520077749502738
5000                     180                      0.0022795745682908735    0.0023860619010407113
5000                     180.5                    0.002391817728038912     0.002391817728038912
5000                     181                      0.002518254599532844     0.002518254599532844
5000                     181.5                    0.002648902395170365     0.002648902395170365
5000                     182                      0.0027747880086939525    0.0027747880086939525
5000                     182.5                    0.002888619067936987     0.002888619067936987
5000                     183                      0.0029901123159500388    0.0029901123159500388
5000                     183.5                    0.003073344763997649     0.003073344763997649
5000                     184                      0.0031351999458092672    0.0031351999458092672
5000                     184.5                    0.0031751624013130475    0.0031751624013130475
5000                     185                      0.0032012451857809598    0.0032012451857809598
5000                     185.5                    0.0032110500977612882    0.0032110500977612882
5000                     186                      0.0032043045829749633    0.0032043045829749633
5000                     186.5                    0.003191754777381735     0.003191754777381735
5000                     187                      0.0031752032084448687    0.0031752032084448687
5000                     187.5                    0.0031474344330475914    0.0031474344330475914
5000                     188                      0.00310712860359952      0.00310712860359952
5000                     188.5                    0.003068159410590674     0.003068159410590674
5000                     189                      0.0030206970905978874    0.0030206970905978874
5000                     189.5                    0.0029647699853530014    0.0029647699853530014
5000                     190                      0.0029141363947484027    0.0029141363947484027
5000                     190.5                    0.002858314850380542     0.0028583148503805414
5000                     191                      0.002802211656902486     0.002802211656902486
5000                     191.5                    0.0027542893799225913    0.0027542893799225913
5000                     192                      0.0027138116071180403    0.00271381160711804
5000                     192.5                    0.0026794178823118554    0.0026794178823118554
5000                     193                      0.00264820885677882      0.00264820885677882
5000                     193.5                    0.0026222277705954806    0.0026222277705954806
5000                     194                      0.002591460480199219     0.002591460480199219
5000                     194.5                    0.002555314077104746     0.002555314077104746
5000                     195                      0.002513602325531125     0.002513602325531125
5000                     195.5                    0.0024662951267881814    0.0024662951267881814
5000                     196                      0.0024155693152095844    0.0024155693152095844
5000                     196.5                    0.0023752323671330853    0.0023752323671330853
5000                     197                      0.0023401829859743518    0.0023401829859743518
5000                     197.5                    0.0022998833296274204    0.0022998833296274204
5000                     198                      0.0022531338183547547    0.0022531338183547547
5000                     198.5                    0.002203062456163812     0.002203062456163812
5000                     199                      0.0021517743035699578    0.0021517743035699578
5000                     199.5                    0.0020961791634538495    0.0020961791634538495
5000                     200                      0.0020375765705690618    0.0020375765705690618
5000                     200.5                    0.0019772115542734973    0.001981113121967844
5000                     201                      0.001916229504549638     0.0019294979426384036
5000                     201.5                    0.0018556421221765824    0.001877671416535429
5000                     202                      0.001796304503316147     0.0018264543239755197
5000                     202.5                    0.0017389027813310702    0.0017765127624239216
5000                     203                      0.0016839512262781346    0.001728354792074784
5000                     203.5                    0.0016317973011137203    0.001683122607753469
5000                     204                      0.0015826329227270892    0.0016452639463230485
5000                     204.5                    0.001536510094355991     0.001609251721482763
5000                     205                      0.001493359158792027     0.0015750705835864453
5000                     205.5                    0.0014539878030085751    0.0015426111377690424
5000                     206                      0.0014187773154321498    0.0015122580339187604
5000                     206.5                    0.0013857268643426939    0.0014841391355371902
5000                     207                      0.0013544478352084423    0.0014569748041613191
5000                     207.5                    0.0013245294698422077    0.0014303939739545018
5000                     208                      0.0012955508696459684    0.001404008269475821
5000                     208.5                    0.0012670912000400617    0.0013774219851351137
5000                     209                      0.0012387383532686063    0.0013502412110927566
5000                     209.5                    0.0012100963514416153    0.00132208225667772
5000                     210                      0.0011807917560370648    0.0012925794911187061
5000                     210.5                    0.0011504793088351758    0.0012613926757510264
5000                     211                      0.0011188469747905078    0.0012282138130997335
5000                     211.5                    0.0010856204987235146    0.001192773493866503
5000                     212                      0.0010505675304985013    0.0011548466863462892
5000                     212.5                    0.0010135013202489218    0.0011142578842801437
5000                     213                      9.752995819832214E-4     0.0010708855067252602
5000                     213.5                    9.3865757160522E-4       0.0010246654250220593
5000                     214                      9.002044628812196E-4     9.755934764734149E-4
5000                     214.5                    8.599875167723775E-4     9.237268132710749E-4
5000                     215                      8.180994265165583E-4     9.102478414087404E-4
5000                     215.5                    7.866685450726612E-4     9.148875360503963E-4
5000                     216                      7.683165309705052E-4     9.19271893796032E-4
5000                     216.5                    7.629061548748344E-4     9.233968745546588E-4
5000                     217                      7.696884506898364E-4     9.272649787075109E-4
5000                     217.5                    7.878441106726629E-4     9.308850961599504E-4
5000                     218                      8.161223514728556E-4     9.342719498220531E-4
5000                     218.5                    8.546337461073041E-4     9.374451765304089E-4
5000                     219                      8.957239962215696E-4     9.404281138783819E-4
5000                     219.5                    9.384874510782801E-4     9.432463805191067E-4
5000                     220                      9.866287317734132E-4     9.866287317734132E-4
5000                     220.5                    0.0010348788739946877    0.0010348788739946877
5000                     221                      0.0010828959942928065    0.0010828959942928065
5000                     221.5                    0.0011303640787314311    0.0011303640787314311
5000                     222                      0.0011772579685266525    0.0011772579685266525
5000                     222.5                    0.0012261416559163818    0.0012261416559163818
5000                     223                      0.0012735257765145247    0.0012735257765145247
5000                     223.5                    0.0013192288611697956    0.0013192288611697956
5000                     224                      0.0013631105860204993    0.0013631105860204993
5000                     224.5                    0.0014050690703508262    0.0014050690703508262
5000                     225                      0.0014450370506214562    0.0014450370506214562
5000                     225.5                    0.0014829772667283526    0.0014829772667283526
5000                     226                      0.0015188773887851266    0.0015188773887851266
5000                     226.5                    0.0015527447861310587    0.0015527447861310587
5000                     227                      0.0015846014012404212    0.0015846014012404212
5000                     227.5                    0.0016144789457986342    0.0016144789457986342
5000                     228                      0.0016424145894199836    0.0016424145894199836
5000                     228.5                    0.0016684472664729583    0.0016684472664729583
5000                     229                      0.001692614683382482     0.001692614683382482
5000                     229.5                    0.0017149510624165692    0.0017149510624165692
5000                     230                      0.0017354855946622844    0.0017354855946622844
5000                     230.5                    0.001754241472238028     0.001754241472238028
5000                     231                      0.0017712352140895767    0.0017712352140895767
5000                     231.5                    0.0017864758482927707    0.0017864758482927707
5000                     232                      0.0017999635911175097    0.0017999635911175097
5000                     232.5                    0.0018116882934193317    0.0018116882934193317
5000                     233                      0.0018216289642862407    0.0018216289642862407
5000                     233.5                    0.001829755928411253     0.001829755928411253
5000                     234                      0.0018360355546513188    0.0018360355546513188
5000                     234.5                    0.0018404377640780733    0.0018404377640780733
5000                     235                      0.0018429350394837795    0.0018429350394837795
5000                     235.5                    0.0018435028892361408    0.0018435028892361408
5000                     236                      0.0018421252405685616    0.0018421252405685616
5000                     236.5                    0.001838792097982219     0.001838792097982219
5000                     237                      0.0018334999239532626    0.0018334999239532626
5000                     237.5                    0.0018262522587821168    0.0018262522587821168
5000                     238                      0.0018170603948722357    0.0018170603948722357
5000                     238.5                    0.001805943947690184     0.001805943947690184
5000                     239                      0.0017929312287067217    0.0017929312287067217
5000                     239.5                    0.0017780593773299397    0.0017780593773299397
5000                     240                      0.001761374242211035     0.001761374242211035
5000                     240.5                    0.0017429300222629469    0.0017429300222629469
5000                     241                      0.0017227886897632206    0.0017227886897632206
5000                     241.5                    0.0017010192254912002    0.0017010192254912002
5000                     242                      0.0016776967007516924    0.0016776967007516924
5000                     242.5                    0.0016529012441155377    0.0016529012441155377
5000                     243                      0.0016267169320533445    0.0016267169320533445
5000                     243.5                    0.0015992306424423876    0.0015992306424423876
5000                     244                      0.001570530908282412     0.001570530908282412
5000                     244.5                    0.0015407068059825045    0.0015407068059825045
5000                     245                      0.0015098469084750053    0.0015098469084750053
5000                     245.5                    0.0014780383284267737    0.0014780383284267737
5000                     246                      0.0014453658712481384    0.0014453658712481384
5000                     246.5                    0.0014119113117520932    0.0014119113117520932
5000                     247                      0.0013777528024959932    0.0013777528024959932
5000                     247.5                    0.00134296441631252      0.00134296441631252
5000                     248                      0.0013076158205295267    0.0013076158205295267
5000                     248.5                    0.001271772076065749     0.001271772076065749
5000                     249                      0.0012354935510886056    0.0012354935510886056
5000                     249.5                    0.001198835936321222     0.001198835936321222
5000                     250                      0.00116185034744266      0.00116185034744266
5000                     250.5                    0.001124583499387277     0.001124583499387277
5000                     251                      0.0010870779377427932    0.0010870779377427932
5000                     251.5                    0.001049372313856431     0.001049372313856431